 variables = x, y, ipart, id
 zone n=        2002 ,e=        1000 ,varlocation=([3-4]=cellcentered)
 , f=feblock,et=quadrilateral
  0.000000000000E+00  0.100000001490E+00  0.000000000000E+00  0.100000001490E+00  0.200000002980E+00
  0.200000002980E+00  0.300000011921E+00  0.300000011921E+00  0.400000005960E+00  0.400000005960E+00
  0.500000000000E+00  0.500000000000E+00  0.600000023842E+00  0.600000023842E+00  0.699999988079E+00
  0.699999988079E+00  0.800000011921E+00  0.800000011921E+00  0.899999976158E+00  0.899999976158E+00
  0.100000000000E+01  0.100000000000E+01  0.110000002384E+01  0.110000002384E+01  0.120000004768E+01
  0.120000004768E+01  0.129999995232E+01  0.129999995232E+01  0.139999997616E+01  0.139999997616E+01
  0.150000000000E+01  0.150000000000E+01  0.160000002384E+01  0.160000002384E+01  0.170000004768E+01
  0.170000004768E+01  0.179999995232E+01  0.179999995232E+01  0.189999997616E+01  0.189999997616E+01
  0.200000000000E+01  0.200000000000E+01  0.209999990463E+01  0.209999990463E+01  0.220000004768E+01
  0.220000004768E+01  0.229999995232E+01  0.229999995232E+01  0.240000009537E+01  0.240000009537E+01
  0.250000000000E+01  0.250000000000E+01  0.259999990463E+01  0.259999990463E+01  0.270000004768E+01
  0.270000004768E+01  0.279999995232E+01  0.279999995232E+01  0.290000009537E+01  0.290000009537E+01
  0.300000000000E+01  0.300000000000E+01  0.309999990463E+01  0.309999990463E+01  0.320000004768E+01
  0.320000004768E+01  0.329999995232E+01  0.329999995232E+01  0.340000009537E+01  0.340000009537E+01
  0.350000000000E+01  0.350000000000E+01  0.359999990463E+01  0.359999990463E+01  0.370000004768E+01
  0.370000004768E+01  0.379999995232E+01  0.379999995232E+01  0.390000009537E+01  0.390000009537E+01
  0.400000000000E+01  0.400000000000E+01  0.409999990463E+01  0.409999990463E+01  0.419999980927E+01
  0.419999980927E+01  0.430000019073E+01  0.430000019073E+01  0.440000009537E+01  0.440000009537E+01
  0.450000000000E+01  0.450000000000E+01  0.459999990463E+01  0.459999990463E+01  0.469999980927E+01
  0.469999980927E+01  0.480000019073E+01  0.480000019073E+01  0.490000009537E+01  0.490000009537E+01
  0.500000000000E+01  0.500000000000E+01  0.509999990463E+01  0.509999990463E+01  0.519999980927E+01
  0.519999980927E+01  0.530000019073E+01  0.530000019073E+01  0.540000009537E+01  0.540000009537E+01
  0.550000000000E+01  0.550000000000E+01  0.559999990463E+01  0.559999990463E+01  0.569999980927E+01
  0.569999980927E+01  0.580000019073E+01  0.580000019073E+01  0.590000009537E+01  0.590000009537E+01
  0.600000000000E+01  0.600000000000E+01  0.609999990463E+01  0.609999990463E+01  0.619999980927E+01
  0.619999980927E+01  0.630000019073E+01  0.630000019073E+01  0.640000009537E+01  0.640000009537E+01
  0.650000000000E+01  0.650000000000E+01  0.659999990463E+01  0.659999990463E+01  0.669999980927E+01
  0.669999980927E+01  0.680000019073E+01  0.680000019073E+01  0.690000009537E+01  0.690000009537E+01
  0.700000000000E+01  0.700000000000E+01  0.709999990463E+01  0.709999990463E+01  0.719999980927E+01
  0.719999980927E+01  0.730000019073E+01  0.730000019073E+01  0.740000009537E+01  0.740000009537E+01
  0.750000000000E+01  0.750000000000E+01  0.759999990463E+01  0.759999990463E+01  0.769999980927E+01
  0.769999980927E+01  0.780000019073E+01  0.780000019073E+01  0.790000009537E+01  0.790000009537E+01
  0.800000000000E+01  0.800000000000E+01  0.810000038147E+01  0.810000038147E+01  0.819999980927E+01
  0.819999980927E+01  0.830000019073E+01  0.830000019073E+01  0.839999961853E+01  0.839999961853E+01
  0.850000000000E+01  0.850000000000E+01  0.860000038147E+01  0.860000038147E+01  0.869999980927E+01
  0.869999980927E+01  0.880000019073E+01  0.880000019073E+01  0.889999961853E+01  0.889999961853E+01
  0.900000000000E+01  0.900000000000E+01  0.910000038147E+01  0.910000038147E+01  0.919999980927E+01
  0.919999980927E+01  0.930000019073E+01  0.930000019073E+01  0.939999961853E+01  0.939999961853E+01
  0.950000000000E+01  0.950000000000E+01  0.960000038147E+01  0.960000038147E+01  0.969999980927E+01
  0.969999980927E+01  0.980000019073E+01  0.980000019073E+01  0.989999961853E+01  0.989999961853E+01
  0.100000000000E+02  0.100000000000E+02  0.101000003815E+02  0.101000003815E+02  0.101999998093E+02
  0.101999998093E+02  0.103000001907E+02  0.103000001907E+02  0.103999996185E+02  0.103999996185E+02
  0.105000000000E+02  0.105000000000E+02  0.106000003815E+02  0.106000003815E+02  0.106999998093E+02
  0.106999998093E+02  0.108000001907E+02  0.108000001907E+02  0.108999996185E+02  0.108999996185E+02
  0.110000000000E+02  0.110000000000E+02  0.111000003815E+02  0.111000003815E+02  0.111999998093E+02
  0.111999998093E+02  0.113000001907E+02  0.113000001907E+02  0.113999996185E+02  0.113999996185E+02
  0.115000000000E+02  0.115000000000E+02  0.116000003815E+02  0.116000003815E+02  0.116999998093E+02
  0.116999998093E+02  0.118000001907E+02  0.118000001907E+02  0.118999996185E+02  0.118999996185E+02
  0.120000000000E+02  0.120000000000E+02  0.121000003815E+02  0.121000003815E+02  0.121999998093E+02
  0.121999998093E+02  0.123000001907E+02  0.123000001907E+02  0.123999996185E+02  0.123999996185E+02
  0.125000000000E+02  0.125000000000E+02  0.126000003815E+02  0.126000003815E+02  0.126999998093E+02
  0.126999998093E+02  0.128000001907E+02  0.128000001907E+02  0.128999996185E+02  0.128999996185E+02
  0.130000000000E+02  0.130000000000E+02  0.131000003815E+02  0.131000003815E+02  0.131999998093E+02
  0.131999998093E+02  0.133000001907E+02  0.133000001907E+02  0.133999996185E+02  0.133999996185E+02
  0.135000000000E+02  0.135000000000E+02  0.136000003815E+02  0.136000003815E+02  0.136999998093E+02
  0.136999998093E+02  0.138000001907E+02  0.138000001907E+02  0.138999996185E+02  0.138999996185E+02
  0.140000000000E+02  0.140000000000E+02  0.141000003815E+02  0.141000003815E+02  0.141999998093E+02
  0.141999998093E+02  0.143000001907E+02  0.143000001907E+02  0.143999996185E+02  0.143999996185E+02
  0.145000000000E+02  0.145000000000E+02  0.146000003815E+02  0.146000003815E+02  0.146999998093E+02
  0.146999998093E+02  0.148000001907E+02  0.148000001907E+02  0.148999996185E+02  0.148999996185E+02
  0.150000000000E+02  0.150000000000E+02  0.151000003815E+02  0.151000003815E+02  0.151999998093E+02
  0.151999998093E+02  0.153000001907E+02  0.153000001907E+02  0.153999996185E+02  0.153999996185E+02
  0.155000000000E+02  0.155000000000E+02  0.156000003815E+02  0.156000003815E+02  0.156999998093E+02
  0.156999998093E+02  0.158000001907E+02  0.158000001907E+02  0.158999996185E+02  0.158999996185E+02
  0.160000000000E+02  0.160000000000E+02  0.161000003815E+02  0.161000003815E+02  0.162000007629E+02
  0.162000007629E+02  0.162999992371E+02  0.162999992371E+02  0.163999996185E+02  0.163999996185E+02
  0.165000000000E+02  0.165000000000E+02  0.166000003815E+02  0.166000003815E+02  0.167000007629E+02
  0.167000007629E+02  0.167999992371E+02  0.167999992371E+02  0.168999996185E+02  0.168999996185E+02
  0.170000000000E+02  0.170000000000E+02  0.171000003815E+02  0.171000003815E+02  0.172000007629E+02
  0.172000007629E+02  0.172999992371E+02  0.172999992371E+02  0.173999996185E+02  0.173999996185E+02
  0.175000000000E+02  0.175000000000E+02  0.176000003815E+02  0.176000003815E+02  0.177000007629E+02
  0.177000007629E+02  0.177999992371E+02  0.177999992371E+02  0.178999996185E+02  0.178999996185E+02
  0.180000000000E+02  0.180000000000E+02  0.181000003815E+02  0.181000003815E+02  0.182000007629E+02
  0.182000007629E+02  0.182999992371E+02  0.182999992371E+02  0.183999996185E+02  0.183999996185E+02
  0.185000000000E+02  0.185000000000E+02  0.186000003815E+02  0.186000003815E+02  0.187000007629E+02
  0.187000007629E+02  0.187999992371E+02  0.187999992371E+02  0.188999996185E+02  0.188999996185E+02
  0.190000000000E+02  0.190000000000E+02  0.191000003815E+02  0.191000003815E+02  0.192000007629E+02
  0.192000007629E+02  0.192999992371E+02  0.192999992371E+02  0.193999996185E+02  0.193999996185E+02
  0.195000000000E+02  0.195000000000E+02  0.196000003815E+02  0.196000003815E+02  0.197000007629E+02
  0.197000007629E+02  0.197999992371E+02  0.197999992371E+02  0.198999996185E+02  0.198999996185E+02
  0.200000000000E+02  0.200000000000E+02  0.201000003815E+02  0.201000003815E+02  0.202000007629E+02
  0.202000007629E+02  0.202999992371E+02  0.202999992371E+02  0.203999996185E+02  0.203999996185E+02
  0.205000000000E+02  0.205000000000E+02  0.206000003815E+02  0.206000003815E+02  0.207000007629E+02
  0.207000007629E+02  0.207999992371E+02  0.207999992371E+02  0.208999996185E+02  0.208999996185E+02
  0.210000000000E+02  0.210000000000E+02  0.211000003815E+02  0.211000003815E+02  0.212000007629E+02
  0.212000007629E+02  0.212999992371E+02  0.212999992371E+02  0.213999996185E+02  0.213999996185E+02
  0.215000000000E+02  0.215000000000E+02  0.216000003815E+02  0.216000003815E+02  0.217000007629E+02
  0.217000007629E+02  0.217999992371E+02  0.217999992371E+02  0.218999996185E+02  0.218999996185E+02
  0.220000000000E+02  0.220000000000E+02  0.221000003815E+02  0.221000003815E+02  0.222000007629E+02
  0.222000007629E+02  0.222999992371E+02  0.222999992371E+02  0.223999996185E+02  0.223999996185E+02
  0.225000000000E+02  0.225000000000E+02  0.226000003815E+02  0.226000003815E+02  0.227000007629E+02
  0.227000007629E+02  0.227999992371E+02  0.227999992371E+02  0.228999996185E+02  0.228999996185E+02
  0.230000000000E+02  0.230000000000E+02  0.231000003815E+02  0.231000003815E+02  0.232000007629E+02
  0.232000007629E+02  0.232999992371E+02  0.232999992371E+02  0.233999996185E+02  0.233999996185E+02
  0.235000000000E+02  0.235000000000E+02  0.236000003815E+02  0.236000003815E+02  0.237000007629E+02
  0.237000007629E+02  0.237999992371E+02  0.237999992371E+02  0.238999996185E+02  0.238999996185E+02
  0.240000000000E+02  0.240000000000E+02  0.241000003815E+02  0.241000003815E+02  0.242000007629E+02
  0.242000007629E+02  0.242999992371E+02  0.242999992371E+02  0.243999996185E+02  0.243999996185E+02
  0.245000000000E+02  0.245000000000E+02  0.246000003815E+02  0.246000003815E+02  0.247000007629E+02
  0.247000007629E+02  0.247999992371E+02  0.247999992371E+02  0.248999996185E+02  0.248999996185E+02
  0.250000000000E+02  0.250000000000E+02  0.251000003815E+02  0.251000003815E+02  0.252000007629E+02
  0.252000007629E+02  0.252999992371E+02  0.252999992371E+02  0.253999996185E+02  0.253999996185E+02
  0.255000000000E+02  0.255000000000E+02  0.256000003815E+02  0.256000003815E+02  0.257000007629E+02
  0.257000007629E+02  0.257999992371E+02  0.257999992371E+02  0.258999996185E+02  0.258999996185E+02
  0.260000000000E+02  0.260000000000E+02  0.261000003815E+02  0.261000003815E+02  0.262000007629E+02
  0.262000007629E+02  0.262999992371E+02  0.262999992371E+02  0.263999996185E+02  0.263999996185E+02
  0.265000000000E+02  0.265000000000E+02  0.266000003815E+02  0.266000003815E+02  0.267000007629E+02
  0.267000007629E+02  0.267999992371E+02  0.267999992371E+02  0.268999996185E+02  0.268999996185E+02
  0.270000000000E+02  0.270000000000E+02  0.271000003815E+02  0.271000003815E+02  0.272000007629E+02
  0.272000007629E+02  0.272999992371E+02  0.272999992371E+02  0.273999996185E+02  0.273999996185E+02
  0.275000000000E+02  0.275000000000E+02  0.276000003815E+02  0.276000003815E+02  0.277000007629E+02
  0.277000007629E+02  0.277999992371E+02  0.277999992371E+02  0.278999996185E+02  0.278999996185E+02
  0.280000000000E+02  0.280000000000E+02  0.281000003815E+02  0.281000003815E+02  0.282000007629E+02
  0.282000007629E+02  0.282999992371E+02  0.282999992371E+02  0.283999996185E+02  0.283999996185E+02
  0.285000000000E+02  0.285000000000E+02  0.286000003815E+02  0.286000003815E+02  0.287000007629E+02
  0.287000007629E+02  0.287999992371E+02  0.287999992371E+02  0.288999996185E+02  0.288999996185E+02
  0.290000000000E+02  0.290000000000E+02  0.291000003815E+02  0.291000003815E+02  0.292000007629E+02
  0.292000007629E+02  0.292999992371E+02  0.292999992371E+02  0.293999996185E+02  0.293999996185E+02
  0.295000000000E+02  0.295000000000E+02  0.296000003815E+02  0.296000003815E+02  0.297000007629E+02
  0.297000007629E+02  0.297999992371E+02  0.297999992371E+02  0.298999996185E+02  0.298999996185E+02
  0.300000000000E+02  0.300000000000E+02  0.301000003815E+02  0.301000003815E+02  0.302000007629E+02
  0.302000007629E+02  0.302999992371E+02  0.302999992371E+02  0.303999996185E+02  0.303999996185E+02
  0.305000000000E+02  0.305000000000E+02  0.306000003815E+02  0.306000003815E+02  0.307000007629E+02
  0.307000007629E+02  0.307999992371E+02  0.307999992371E+02  0.308999996185E+02  0.308999996185E+02
  0.310000000000E+02  0.310000000000E+02  0.311000003815E+02  0.311000003815E+02  0.312000007629E+02
  0.312000007629E+02  0.312999992371E+02  0.312999992371E+02  0.313999996185E+02  0.313999996185E+02
  0.315000000000E+02  0.315000000000E+02  0.316000003815E+02  0.316000003815E+02  0.317000007629E+02
  0.317000007629E+02  0.317999992371E+02  0.317999992371E+02  0.318999996185E+02  0.318999996185E+02
  0.320000000000E+02  0.320000000000E+02  0.320999984741E+02  0.320999984741E+02  0.322000007629E+02
  0.322000007629E+02  0.322999992371E+02  0.322999992371E+02  0.324000015259E+02  0.324000015259E+02
  0.325000000000E+02  0.325000000000E+02  0.325999984741E+02  0.325999984741E+02  0.327000007629E+02
  0.327000007629E+02  0.327999992371E+02  0.327999992371E+02  0.329000015259E+02  0.329000015259E+02
  0.330000000000E+02  0.330000000000E+02  0.330999984741E+02  0.330999984741E+02  0.332000007629E+02
  0.332000007629E+02  0.332999992371E+02  0.332999992371E+02  0.334000015259E+02  0.334000015259E+02
  0.335000000000E+02  0.335000000000E+02  0.335999984741E+02  0.335999984741E+02  0.337000007629E+02
  0.337000007629E+02  0.337999992371E+02  0.337999992371E+02  0.339000015259E+02  0.339000015259E+02
  0.340000000000E+02  0.340000000000E+02  0.340999984741E+02  0.340999984741E+02  0.342000007629E+02
  0.342000007629E+02  0.342999992371E+02  0.342999992371E+02  0.344000015259E+02  0.344000015259E+02
  0.345000000000E+02  0.345000000000E+02  0.345999984741E+02  0.345999984741E+02  0.347000007629E+02
  0.347000007629E+02  0.347999992371E+02  0.347999992371E+02  0.349000015259E+02  0.349000015259E+02
  0.350000000000E+02  0.350000000000E+02  0.350999984741E+02  0.350999984741E+02  0.352000007629E+02
  0.352000007629E+02  0.352999992371E+02  0.352999992371E+02  0.354000015259E+02  0.354000015259E+02
  0.355000000000E+02  0.355000000000E+02  0.355999984741E+02  0.355999984741E+02  0.357000007629E+02
  0.357000007629E+02  0.357999992371E+02  0.357999992371E+02  0.359000015259E+02  0.359000015259E+02
  0.360000000000E+02  0.360000000000E+02  0.360999984741E+02  0.360999984741E+02  0.362000007629E+02
  0.362000007629E+02  0.362999992371E+02  0.362999992371E+02  0.364000015259E+02  0.364000015259E+02
  0.365000000000E+02  0.365000000000E+02  0.365999984741E+02  0.365999984741E+02  0.367000007629E+02
  0.367000007629E+02  0.367999992371E+02  0.367999992371E+02  0.369000015259E+02  0.369000015259E+02
  0.370000000000E+02  0.370000000000E+02  0.370999984741E+02  0.370999984741E+02  0.372000007629E+02
  0.372000007629E+02  0.372999992371E+02  0.372999992371E+02  0.374000015259E+02  0.374000015259E+02
  0.375000000000E+02  0.375000000000E+02  0.375999984741E+02  0.375999984741E+02  0.377000007629E+02
  0.377000007629E+02  0.377999992371E+02  0.377999992371E+02  0.379000015259E+02  0.379000015259E+02
  0.380000000000E+02  0.380000000000E+02  0.380999984741E+02  0.380999984741E+02  0.382000007629E+02
  0.382000007629E+02  0.382999992371E+02  0.382999992371E+02  0.384000015259E+02  0.384000015259E+02
  0.385000000000E+02  0.385000000000E+02  0.385999984741E+02  0.385999984741E+02  0.387000007629E+02
  0.387000007629E+02  0.387999992371E+02  0.387999992371E+02  0.389000015259E+02  0.389000015259E+02
  0.390000000000E+02  0.390000000000E+02  0.390999984741E+02  0.390999984741E+02  0.392000007629E+02
  0.392000007629E+02  0.392999992371E+02  0.392999992371E+02  0.394000015259E+02  0.394000015259E+02
  0.395000000000E+02  0.395000000000E+02  0.395999984741E+02  0.395999984741E+02  0.397000007629E+02
  0.397000007629E+02  0.397999992371E+02  0.397999992371E+02  0.399000015259E+02  0.399000015259E+02
  0.400000000000E+02  0.400000000000E+02  0.400999984741E+02  0.400999984741E+02  0.402000007629E+02
  0.402000007629E+02  0.402999992371E+02  0.402999992371E+02  0.404000015259E+02  0.404000015259E+02
  0.405000000000E+02  0.405000000000E+02  0.405999984741E+02  0.405999984741E+02  0.407000007629E+02
  0.407000007629E+02  0.407999992371E+02  0.407999992371E+02  0.409000015259E+02  0.409000015259E+02
  0.410000000000E+02  0.410000000000E+02  0.410999984741E+02  0.410999984741E+02  0.412000007629E+02
  0.412000007629E+02  0.412999992371E+02  0.412999992371E+02  0.414000015259E+02  0.414000015259E+02
  0.415000000000E+02  0.415000000000E+02  0.415999984741E+02  0.415999984741E+02  0.417000007629E+02
  0.417000007629E+02  0.417999992371E+02  0.417999992371E+02  0.419000015259E+02  0.419000015259E+02
  0.420000000000E+02  0.420000000000E+02  0.420999984741E+02  0.420999984741E+02  0.422000007629E+02
  0.422000007629E+02  0.422999992371E+02  0.422999992371E+02  0.424000015259E+02  0.424000015259E+02
  0.425000000000E+02  0.425000000000E+02  0.425999984741E+02  0.425999984741E+02  0.427000007629E+02
  0.427000007629E+02  0.427999992371E+02  0.427999992371E+02  0.429000015259E+02  0.429000015259E+02
  0.430000000000E+02  0.430000000000E+02  0.430999984741E+02  0.430999984741E+02  0.432000007629E+02
  0.432000007629E+02  0.432999992371E+02  0.432999992371E+02  0.434000015259E+02  0.434000015259E+02
  0.435000000000E+02  0.435000000000E+02  0.435999984741E+02  0.435999984741E+02  0.437000007629E+02
  0.437000007629E+02  0.437999992371E+02  0.437999992371E+02  0.439000015259E+02  0.439000015259E+02
  0.440000000000E+02  0.440000000000E+02  0.440999984741E+02  0.440999984741E+02  0.442000007629E+02
  0.442000007629E+02  0.442999992371E+02  0.442999992371E+02  0.444000015259E+02  0.444000015259E+02
  0.445000000000E+02  0.445000000000E+02  0.445999984741E+02  0.445999984741E+02  0.447000007629E+02
  0.447000007629E+02  0.447999992371E+02  0.447999992371E+02  0.449000015259E+02  0.449000015259E+02
  0.450000000000E+02  0.450000000000E+02  0.450999984741E+02  0.450999984741E+02  0.452000007629E+02
  0.452000007629E+02  0.452999992371E+02  0.452999992371E+02  0.454000015259E+02  0.454000015259E+02
  0.455000000000E+02  0.455000000000E+02  0.455999984741E+02  0.455999984741E+02  0.457000007629E+02
  0.457000007629E+02  0.457999992371E+02  0.457999992371E+02  0.459000015259E+02  0.459000015259E+02
  0.460000000000E+02  0.460000000000E+02  0.460999984741E+02  0.460999984741E+02  0.462000007629E+02
  0.462000007629E+02  0.462999992371E+02  0.462999992371E+02  0.464000015259E+02  0.464000015259E+02
  0.465000000000E+02  0.465000000000E+02  0.465999984741E+02  0.465999984741E+02  0.467000007629E+02
  0.467000007629E+02  0.467999992371E+02  0.467999992371E+02  0.469000015259E+02  0.469000015259E+02
  0.470000000000E+02  0.470000000000E+02  0.470999984741E+02  0.470999984741E+02  0.472000007629E+02
  0.472000007629E+02  0.472999992371E+02  0.472999992371E+02  0.474000015259E+02  0.474000015259E+02
  0.475000000000E+02  0.475000000000E+02  0.475999984741E+02  0.475999984741E+02  0.477000007629E+02
  0.477000007629E+02  0.477999992371E+02  0.477999992371E+02  0.479000015259E+02  0.479000015259E+02
  0.480000000000E+02  0.480000000000E+02  0.480999984741E+02  0.480999984741E+02  0.482000007629E+02
  0.482000007629E+02  0.482999992371E+02  0.482999992371E+02  0.484000015259E+02  0.484000015259E+02
  0.485000000000E+02  0.485000000000E+02  0.485999984741E+02  0.485999984741E+02  0.487000007629E+02
  0.487000007629E+02  0.487999992371E+02  0.487999992371E+02  0.489000015259E+02  0.489000015259E+02
  0.490000000000E+02  0.490000000000E+02  0.490999984741E+02  0.490999984741E+02  0.492000007629E+02
  0.492000007629E+02  0.492999992371E+02  0.492999992371E+02  0.494000015259E+02  0.494000015259E+02
  0.495000000000E+02  0.495000000000E+02  0.495999984741E+02  0.495999984741E+02  0.497000007629E+02
  0.497000007629E+02  0.497999992371E+02  0.497999992371E+02  0.499000015259E+02  0.499000015259E+02
  0.500000000000E+02  0.500000000000E+02  0.500999984741E+02  0.500999984741E+02  0.502000007629E+02
  0.502000007629E+02  0.502999992371E+02  0.502999992371E+02  0.504000015259E+02  0.504000015259E+02
  0.505000000000E+02  0.505000000000E+02  0.505999984741E+02  0.505999984741E+02  0.507000007629E+02
  0.507000007629E+02  0.507999992371E+02  0.507999992371E+02  0.509000015259E+02  0.509000015259E+02
  0.510000000000E+02  0.510000000000E+02  0.510999984741E+02  0.510999984741E+02  0.512000007629E+02
  0.512000007629E+02  0.512999992371E+02  0.512999992371E+02  0.514000015259E+02  0.514000015259E+02
  0.515000000000E+02  0.515000000000E+02  0.515999984741E+02  0.515999984741E+02  0.517000007629E+02
  0.517000007629E+02  0.517999992371E+02  0.517999992371E+02  0.519000015259E+02  0.519000015259E+02
  0.520000000000E+02  0.520000000000E+02  0.520999984741E+02  0.520999984741E+02  0.522000007629E+02
  0.522000007629E+02  0.522999992371E+02  0.522999992371E+02  0.524000015259E+02  0.524000015259E+02
  0.525000000000E+02  0.525000000000E+02  0.525999984741E+02  0.525999984741E+02  0.527000007629E+02
  0.527000007629E+02  0.527999992371E+02  0.527999992371E+02  0.529000015259E+02  0.529000015259E+02
  0.530000000000E+02  0.530000000000E+02  0.530999984741E+02  0.530999984741E+02  0.532000007629E+02
  0.532000007629E+02  0.532999992371E+02  0.532999992371E+02  0.534000015259E+02  0.534000015259E+02
  0.535000000000E+02  0.535000000000E+02  0.535999984741E+02  0.535999984741E+02  0.537000007629E+02
  0.537000007629E+02  0.537999992371E+02  0.537999992371E+02  0.539000015259E+02  0.539000015259E+02
  0.540000000000E+02  0.540000000000E+02  0.540999984741E+02  0.540999984741E+02  0.542000007629E+02
  0.542000007629E+02  0.542999992371E+02  0.542999992371E+02  0.544000015259E+02  0.544000015259E+02
  0.545000000000E+02  0.545000000000E+02  0.545999984741E+02  0.545999984741E+02  0.547000007629E+02
  0.547000007629E+02  0.547999992371E+02  0.547999992371E+02  0.549000015259E+02  0.549000015259E+02
  0.550000000000E+02  0.550000000000E+02  0.550999984741E+02  0.550999984741E+02  0.552000007629E+02
  0.552000007629E+02  0.552999992371E+02  0.552999992371E+02  0.554000015259E+02  0.554000015259E+02
  0.555000000000E+02  0.555000000000E+02  0.555999984741E+02  0.555999984741E+02  0.557000007629E+02
  0.557000007629E+02  0.557999992371E+02  0.557999992371E+02  0.559000015259E+02  0.559000015259E+02
  0.560000000000E+02  0.560000000000E+02  0.560999984741E+02  0.560999984741E+02  0.562000007629E+02
  0.562000007629E+02  0.562999992371E+02  0.562999992371E+02  0.564000015259E+02  0.564000015259E+02
  0.565000000000E+02  0.565000000000E+02  0.565999984741E+02  0.565999984741E+02  0.567000007629E+02
  0.567000007629E+02  0.567999992371E+02  0.567999992371E+02  0.569000015259E+02  0.569000015259E+02
  0.570000000000E+02  0.570000000000E+02  0.570999984741E+02  0.570999984741E+02  0.572000007629E+02
  0.572000007629E+02  0.572999992371E+02  0.572999992371E+02  0.574000015259E+02  0.574000015259E+02
  0.575000000000E+02  0.575000000000E+02  0.575999984741E+02  0.575999984741E+02  0.577000007629E+02
  0.577000007629E+02  0.577999992371E+02  0.577999992371E+02  0.579000015259E+02  0.579000015259E+02
  0.580000000000E+02  0.580000000000E+02  0.580999984741E+02  0.580999984741E+02  0.582000007629E+02
  0.582000007629E+02  0.582999992371E+02  0.582999992371E+02  0.584000015259E+02  0.584000015259E+02
  0.585000000000E+02  0.585000000000E+02  0.585999984741E+02  0.585999984741E+02  0.587000007629E+02
  0.587000007629E+02  0.587999992371E+02  0.587999992371E+02  0.589000015259E+02  0.589000015259E+02
  0.590000000000E+02  0.590000000000E+02  0.590999984741E+02  0.590999984741E+02  0.592000007629E+02
  0.592000007629E+02  0.592999992371E+02  0.592999992371E+02  0.594000015259E+02  0.594000015259E+02
  0.595000000000E+02  0.595000000000E+02  0.595999984741E+02  0.595999984741E+02  0.597000007629E+02
  0.597000007629E+02  0.597999992371E+02  0.597999992371E+02  0.599000015259E+02  0.599000015259E+02
  0.600000000000E+02  0.600000000000E+02  0.600999984741E+02  0.600999984741E+02  0.602000007629E+02
  0.602000007629E+02  0.602999992371E+02  0.602999992371E+02  0.604000015259E+02  0.604000015259E+02
  0.605000000000E+02  0.605000000000E+02  0.605999984741E+02  0.605999984741E+02  0.607000007629E+02
  0.607000007629E+02  0.607999992371E+02  0.607999992371E+02  0.609000015259E+02  0.609000015259E+02
  0.610000000000E+02  0.610000000000E+02  0.610999984741E+02  0.610999984741E+02  0.612000007629E+02
  0.612000007629E+02  0.612999992371E+02  0.612999992371E+02  0.614000015259E+02  0.614000015259E+02
  0.615000000000E+02  0.615000000000E+02  0.615999984741E+02  0.615999984741E+02  0.617000007629E+02
  0.617000007629E+02  0.617999992371E+02  0.617999992371E+02  0.619000015259E+02  0.619000015259E+02
  0.620000000000E+02  0.620000000000E+02  0.620999984741E+02  0.620999984741E+02  0.622000007629E+02
  0.622000007629E+02  0.622999992371E+02  0.622999992371E+02  0.624000015259E+02  0.624000015259E+02
  0.625000000000E+02  0.625000000000E+02  0.625999984741E+02  0.625999984741E+02  0.627000007629E+02
  0.627000007629E+02  0.627999992371E+02  0.627999992371E+02  0.629000015259E+02  0.629000015259E+02
  0.630000000000E+02  0.630000000000E+02  0.630999984741E+02  0.630999984741E+02  0.632000007629E+02
  0.632000007629E+02  0.632999992371E+02  0.632999992371E+02  0.634000015259E+02  0.634000015259E+02
  0.635000000000E+02  0.635000000000E+02  0.635999984741E+02  0.635999984741E+02  0.637000007629E+02
  0.637000007629E+02  0.637999992371E+02  0.637999992371E+02  0.639000015259E+02  0.639000015259E+02
  0.640000000000E+02  0.640000000000E+02  0.640999984741E+02  0.640999984741E+02  0.641999969482E+02
  0.641999969482E+02  0.643000030518E+02  0.643000030518E+02  0.644000015259E+02  0.644000015259E+02
  0.645000000000E+02  0.645000000000E+02  0.645999984741E+02  0.645999984741E+02  0.646999969482E+02
  0.646999969482E+02  0.648000030518E+02  0.648000030518E+02  0.649000015259E+02  0.649000015259E+02
  0.650000000000E+02  0.650000000000E+02  0.650999984741E+02  0.650999984741E+02  0.651999969482E+02
  0.651999969482E+02  0.653000030518E+02  0.653000030518E+02  0.654000015259E+02  0.654000015259E+02
  0.655000000000E+02  0.655000000000E+02  0.655999984741E+02  0.655999984741E+02  0.656999969482E+02
  0.656999969482E+02  0.658000030518E+02  0.658000030518E+02  0.659000015259E+02  0.659000015259E+02
  0.660000000000E+02  0.660000000000E+02  0.660999984741E+02  0.660999984741E+02  0.661999969482E+02
  0.661999969482E+02  0.663000030518E+02  0.663000030518E+02  0.664000015259E+02  0.664000015259E+02
  0.665000000000E+02  0.665000000000E+02  0.665999984741E+02  0.665999984741E+02  0.666999969482E+02
  0.666999969482E+02  0.668000030518E+02  0.668000030518E+02  0.669000015259E+02  0.669000015259E+02
  0.670000000000E+02  0.670000000000E+02  0.670999984741E+02  0.670999984741E+02  0.671999969482E+02
  0.671999969482E+02  0.673000030518E+02  0.673000030518E+02  0.674000015259E+02  0.674000015259E+02
  0.675000000000E+02  0.675000000000E+02  0.675999984741E+02  0.675999984741E+02  0.676999969482E+02
  0.676999969482E+02  0.678000030518E+02  0.678000030518E+02  0.679000015259E+02  0.679000015259E+02
  0.680000000000E+02  0.680000000000E+02  0.680999984741E+02  0.680999984741E+02  0.681999969482E+02
  0.681999969482E+02  0.683000030518E+02  0.683000030518E+02  0.684000015259E+02  0.684000015259E+02
  0.685000000000E+02  0.685000000000E+02  0.685999984741E+02  0.685999984741E+02  0.686999969482E+02
  0.686999969482E+02  0.688000030518E+02  0.688000030518E+02  0.689000015259E+02  0.689000015259E+02
  0.690000000000E+02  0.690000000000E+02  0.690999984741E+02  0.690999984741E+02  0.691999969482E+02
  0.691999969482E+02  0.693000030518E+02  0.693000030518E+02  0.694000015259E+02  0.694000015259E+02
  0.695000000000E+02  0.695000000000E+02  0.695999984741E+02  0.695999984741E+02  0.696999969482E+02
  0.696999969482E+02  0.698000030518E+02  0.698000030518E+02  0.699000015259E+02  0.699000015259E+02
  0.700000000000E+02  0.700000000000E+02  0.700999984741E+02  0.700999984741E+02  0.701999969482E+02
  0.701999969482E+02  0.703000030518E+02  0.703000030518E+02  0.704000015259E+02  0.704000015259E+02
  0.705000000000E+02  0.705000000000E+02  0.705999984741E+02  0.705999984741E+02  0.706999969482E+02
  0.706999969482E+02  0.708000030518E+02  0.708000030518E+02  0.709000015259E+02  0.709000015259E+02
  0.710000000000E+02  0.710000000000E+02  0.710999984741E+02  0.710999984741E+02  0.711999969482E+02
  0.711999969482E+02  0.713000030518E+02  0.713000030518E+02  0.714000015259E+02  0.714000015259E+02
  0.715000000000E+02  0.715000000000E+02  0.715999984741E+02  0.715999984741E+02  0.716999969482E+02
  0.716999969482E+02  0.718000030518E+02  0.718000030518E+02  0.719000015259E+02  0.719000015259E+02
  0.720000000000E+02  0.720000000000E+02  0.720999984741E+02  0.720999984741E+02  0.721999969482E+02
  0.721999969482E+02  0.723000030518E+02  0.723000030518E+02  0.724000015259E+02  0.724000015259E+02
  0.725000000000E+02  0.725000000000E+02  0.725999984741E+02  0.725999984741E+02  0.726999969482E+02
  0.726999969482E+02  0.728000030518E+02  0.728000030518E+02  0.729000015259E+02  0.729000015259E+02
  0.730000000000E+02  0.730000000000E+02  0.730999984741E+02  0.730999984741E+02  0.731999969482E+02
  0.731999969482E+02  0.733000030518E+02  0.733000030518E+02  0.734000015259E+02  0.734000015259E+02
  0.735000000000E+02  0.735000000000E+02  0.735999984741E+02  0.735999984741E+02  0.736999969482E+02