 variables = x, y, ipart, id
 zone n=       39065 ,e=       38523 ,varlocation=([3-4]=cellcentered)
 , f=feblock,et=quadrilateral
 -0.400000000000E+02 -0.396819992065E+02 -0.400000000000E+02 -0.396819992065E+02 -0.400000000000E+02
 -0.396819992065E+02 -0.400000000000E+02 -0.396819992065E+02 -0.400000000000E+02 -0.396819992065E+02
 -0.400000000000E+02 -0.396819992065E+02 -0.400000000000E+02 -0.396819992065E+02 -0.400000000000E+02
 -0.396819992065E+02 -0.400000000000E+02 -0.396819992065E+02 -0.393639984131E+02 -0.393639984131E+02
 -0.393639984131E+02 -0.393639984131E+02 -0.393639984131E+02 -0.393639984131E+02 -0.393639984131E+02
 -0.393639984131E+02 -0.393639984131E+02 -0.390460014343E+02 -0.390460014343E+02 -0.390460014343E+02
 -0.390460014343E+02 -0.390460014343E+02 -0.390460014343E+02 -0.390460014343E+02 -0.390460014343E+02
 -0.390460014343E+02 -0.387280006409E+02 -0.387280006409E+02 -0.387280006409E+02 -0.387280006409E+02
 -0.387280006409E+02 -0.387280006409E+02 -0.387280006409E+02 -0.387280006409E+02 -0.387280006409E+02
 -0.384099998474E+02 -0.384099998474E+02 -0.384099998474E+02 -0.384099998474E+02 -0.384099998474E+02
 -0.384099998474E+02 -0.384099998474E+02 -0.384099998474E+02 -0.384099998474E+02 -0.380919990540E+02
 -0.380919990540E+02 -0.380919990540E+02 -0.380919990540E+02 -0.380919990540E+02 -0.380919990540E+02
 -0.380919990540E+02 -0.380919990540E+02 -0.380919990540E+02 -0.377739982605E+02 -0.377739982605E+02
 -0.377739982605E+02 -0.377739982605E+02 -0.377739982605E+02 -0.377739982605E+02 -0.377739982605E+02
 -0.377739982605E+02 -0.377739982605E+02 -0.374560012817E+02 -0.374560012817E+02 -0.374560012817E+02
 -0.374560012817E+02 -0.374560012817E+02 -0.374560012817E+02 -0.374560012817E+02 -0.374560012817E+02
 -0.374560012817E+02 -0.371380004883E+02 -0.371380004883E+02 -0.371380004883E+02 -0.371380004883E+02
 -0.371380004883E+02 -0.371380004883E+02 -0.371380004883E+02 -0.371380004883E+02 -0.371380004883E+02
 -0.368199996948E+02 -0.368199996948E+02 -0.368199996948E+02 -0.368199996948E+02 -0.368199996948E+02
 -0.368199996948E+02 -0.368199996948E+02 -0.368199996948E+02 -0.368199996948E+02 -0.365019989014E+02
 -0.365019989014E+02 -0.365019989014E+02 -0.365019989014E+02 -0.365019989014E+02 -0.365019989014E+02
 -0.365019989014E+02 -0.365019989014E+02 -0.365019989014E+02 -0.361839981079E+02 -0.361839981079E+02
 -0.361839981079E+02 -0.361839981079E+02 -0.361839981079E+02 -0.361839981079E+02 -0.361839981079E+02
 -0.361839981079E+02 -0.361839981079E+02 -0.358660011292E+02 -0.358660011292E+02 -0.358660011292E+02
 -0.358660011292E+02 -0.358660011292E+02 -0.358660011292E+02 -0.358660011292E+02 -0.358660011292E+02
 -0.358660011292E+02 -0.355480003357E+02 -0.355480003357E+02 -0.355480003357E+02 -0.355480003357E+02
 -0.355480003357E+02 -0.355480003357E+02 -0.355480003357E+02 -0.355480003357E+02 -0.355480003357E+02
 -0.352299995422E+02 -0.352299995422E+02 -0.352299995422E+02 -0.352299995422E+02 -0.352299995422E+02
 -0.352299995422E+02 -0.352299995422E+02 -0.352299995422E+02 -0.352299995422E+02 -0.349119987488E+02
 -0.349119987488E+02 -0.349119987488E+02 -0.349119987488E+02 -0.349119987488E+02 -0.349119987488E+02
 -0.349119987488E+02 -0.349119987488E+02 -0.349119987488E+02 -0.345939979553E+02 -0.345939979553E+02
 -0.345939979553E+02 -0.345939979553E+02 -0.345939979553E+02 -0.345939979553E+02 -0.345939979553E+02
 -0.345939979553E+02 -0.345939979553E+02 -0.342760009766E+02 -0.342760009766E+02 -0.342760009766E+02
 -0.342760009766E+02 -0.342760009766E+02 -0.342760009766E+02 -0.342760009766E+02 -0.342760009766E+02
 -0.342760009766E+02 -0.339580001831E+02 -0.339580001831E+02 -0.339580001831E+02 -0.339580001831E+02
 -0.339580001831E+02 -0.339580001831E+02 -0.339580001831E+02 -0.339580001831E+02 -0.339580001831E+02
 -0.336399993896E+02 -0.336399993896E+02 -0.336399993896E+02 -0.336399993896E+02 -0.336399993896E+02
 -0.336399993896E+02 -0.336399993896E+02 -0.336399993896E+02 -0.336399993896E+02 -0.333219985962E+02
 -0.333219985962E+02 -0.333219985962E+02 -0.333219985962E+02 -0.333219985962E+02 -0.333219985962E+02
 -0.333219985962E+02 -0.333219985962E+02 -0.333219985962E+02 -0.330039978027E+02 -0.330039978027E+02
 -0.330039978027E+02 -0.330039978027E+02 -0.330039978027E+02 -0.330039978027E+02 -0.330039978027E+02
 -0.330039978027E+02 -0.330039978027E+02 -0.326860008240E+02 -0.326860008240E+02 -0.326860008240E+02
 -0.326860008240E+02 -0.326860008240E+02 -0.326860008240E+02 -0.326860008240E+02 -0.326860008240E+02
 -0.326860008240E+02 -0.323680000305E+02 -0.323680000305E+02 -0.323680000305E+02 -0.323680000305E+02
 -0.323680000305E+02 -0.323680000305E+02 -0.323680000305E+02 -0.323680000305E+02 -0.323680000305E+02
 -0.320499992371E+02 -0.320499992371E+02 -0.320499992371E+02 -0.320499992371E+02 -0.320499992371E+02
 -0.320499992371E+02 -0.320499992371E+02 -0.320499992371E+02 -0.320499992371E+02 -0.317319984436E+02
 -0.317319984436E+02 -0.317319984436E+02 -0.317319984436E+02 -0.317319984436E+02 -0.317319984436E+02
 -0.317319984436E+02 -0.317319984436E+02 -0.317319984436E+02 -0.314139995575E+02 -0.314139995575E+02
 -0.314139995575E+02 -0.314139995575E+02 -0.314139995575E+02 -0.314139995575E+02 -0.314139995575E+02
 -0.314139995575E+02 -0.314139995575E+02 -0.310959987640E+02 -0.310959987640E+02 -0.310959987640E+02
 -0.310959987640E+02 -0.310959987640E+02 -0.310959987640E+02 -0.310959987640E+02 -0.310959987640E+02
 -0.310959987640E+02 -0.307779998779E+02 -0.307779998779E+02 -0.307779998779E+02 -0.307779998779E+02
 -0.307779998779E+02 -0.307779998779E+02 -0.307779998779E+02 -0.307779998779E+02 -0.307779998779E+02
 -0.304599990845E+02 -0.304599990845E+02 -0.304599990845E+02 -0.304599990845E+02 -0.304599990845E+02
 -0.304599990845E+02 -0.304599990845E+02 -0.304599990845E+02 -0.304599990845E+02 -0.400000000000E+02
 -0.396819992065E+02 -0.400000000000E+02 -0.396819992065E+02 -0.400000000000E+02 -0.396819992065E+02
 -0.400000000000E+02 -0.396819992065E+02 -0.400000000000E+02 -0.396819992065E+02 -0.400000000000E+02
 -0.396819992065E+02 -0.400000000000E+02 -0.396819992065E+02 -0.400000000000E+02 -0.396819992065E+02
 -0.400000000000E+02 -0.396819992065E+02 -0.400000000000E+02 -0.396819992065E+02 -0.400000000000E+02
 -0.396819992065E+02 -0.400000000000E+02 -0.396819992065E+02 -0.400000000000E+02 -0.396819992065E+02
 -0.400000000000E+02 -0.396819992065E+02 -0.400000000000E+02 -0.396819992065E+02 -0.400000000000E+02
 -0.396819992065E+02 -0.400000000000E+02 -0.396819992065E+02 -0.400000000000E+02 -0.396819992065E+02
 -0.400000000000E+02 -0.396819992065E+02 -0.400000000000E+02 -0.396819992065E+02 -0.400000000000E+02
 -0.396819992065E+02 -0.400000000000E+02 -0.396819992065E+02 -0.400000000000E+02 -0.396819992065E+02
 -0.400000000000E+02 -0.396819992065E+02 -0.400000000000E+02 -0.396819992065E+02 -0.400000000000E+02
 -0.396819992065E+02 -0.400000000000E+02 -0.396819992065E+02 -0.400000000000E+02 -0.396819992065E+02
 -0.400000000000E+02 -0.396819992065E+02 -0.400000000000E+02 -0.396819992065E+02 -0.400000000000E+02
 -0.396819992065E+02 -0.400000000000E+02 -0.396819992065E+02 -0.400000000000E+02 -0.396819992065E+02
 -0.400000000000E+02 -0.396819992065E+02 -0.400000000000E+02 -0.396819992065E+02 -0.400000000000E+02
 -0.396819992065E+02 -0.400000000000E+02 -0.396819992065E+02 -0.400000000000E+02 -0.396819992065E+02
 -0.400000000000E+02 -0.396819992065E+02 -0.400000000000E+02 -0.396819992065E+02 -0.400000000000E+02
 -0.396819992065E+02 -0.400000000000E+02 -0.396819992065E+02 -0.400000000000E+02 -0.396819992065E+02
 -0.400000000000E+02 -0.396819992065E+02 -0.400000000000E+02 -0.396819992065E+02 -0.400000000000E+02
 -0.396819992065E+02 -0.400000000000E+02 -0.396819992065E+02 -0.400000000000E+02 -0.396819992065E+02
 -0.400000000000E+02 -0.396819992065E+02 -0.400000000000E+02 -0.396819992065E+02 -0.393639984131E+02
 -0.393639984131E+02 -0.393639984131E+02 -0.393639984131E+02 -0.393639984131E+02 -0.393639984131E+02
 -0.393639984131E+02 -0.393639984131E+02 -0.393639984131E+02 -0.393639984131E+02 -0.393639984131E+02
 -0.393639984131E+02 -0.393639984131E+02 -0.393639984131E+02 -0.393639984131E+02 -0.393639984131E+02
 -0.393639984131E+02 -0.393639984131E+02 -0.393639984131E+02 -0.393639984131E+02 -0.393639984131E+02
 -0.393639984131E+02 -0.393639984131E+02 -0.393639984131E+02 -0.393639984131E+02 -0.393639984131E+02
 -0.393639984131E+02 -0.393639984131E+02 -0.393639984131E+02 -0.393639984131E+02 -0.393639984131E+02
 -0.393639984131E+02 -0.393639984131E+02 -0.393639984131E+02 -0.393639984131E+02 -0.393639984131E+02
 -0.393639984131E+02 -0.393639984131E+02 -0.393639984131E+02 -0.393639984131E+02 -0.393639984131E+02
 -0.393639984131E+02 -0.393639984131E+02 -0.393639984131E+02 -0.393639984131E+02 -0.393639984131E+02
 -0.393639984131E+02 -0.393639984131E+02 -0.393639984131E+02 -0.393639984131E+02 -0.390460014343E+02
 -0.390460014343E+02 -0.390460014343E+02 -0.390460014343E+02 -0.390460014343E+02 -0.390460014343E+02
 -0.390460014343E+02 -0.390460014343E+02 -0.390460014343E+02 -0.390460014343E+02 -0.390460014343E+02
 -0.390460014343E+02 -0.390460014343E+02 -0.390460014343E+02 -0.390460014343E+02 -0.390460014343E+02
 -0.390460014343E+02 -0.390460014343E+02 -0.390460014343E+02 -0.390460014343E+02 -0.390460014343E+02
 -0.390460014343E+02 -0.390460014343E+02 -0.390460014343E+02 -0.390460014343E+02 -0.390460014343E+02
 -0.390460014343E+02 -0.390460014343E+02 -0.390460014343E+02 -0.390460014343E+02 -0.390460014343E+02
 -0.390460014343E+02 -0.390460014343E+02 -0.390460014343E+02 -0.390460014343E+02 -0.390460014343E+02
 -0.390460014343E+02 -0.390460014343E+02 -0.390460014343E+02 -0.390460014343E+02 -0.390460014343E+02
 -0.390460014343E+02 -0.390460014343E+02 -0.390460014343E+02 -0.390460014343E+02 -0.390460014343E+02
 -0.390460014343E+02 -0.390460014343E+02 -0.390460014343E+02 -0.390460014343E+02 -0.387280006409E+02
 -0.387280006409E+02 -0.387280006409E+02 -0.387280006409E+02 -0.387280006409E+02 -0.387280006409E+02
 -0.387280006409E+02 -0.387280006409E+02 -0.387280006409E+02 -0.387280006409E+02 -0.387280006409E+02
 -0.387280006409E+02 -0.387280006409E+02 -0.387280006409E+02 -0.387280006409E+02 -0.387280006409E+02
 -0.387280006409E+02 -0.387280006409E+02 -0.387280006409E+02 -0.387280006409E+02 -0.387280006409E+02
 -0.387280006409E+02 -0.387280006409E+02 -0.387280006409E+02 -0.387280006409E+02 -0.387280006409E+02
 -0.387280006409E+02 -0.387280006409E+02 -0.387280006409E+02 -0.387280006409E+02 -0.387280006409E+02
 -0.387280006409E+02 -0.387280006409E+02 -0.387280006409E+02 -0.387280006409E+02 -0.387280006409E+02
 -0.387280006409E+02 -0.387280006409E+02 -0.387280006409E+02 -0.387280006409E+02 -0.387280006409E+02
 -0.387280006409E+02 -0.387280006409E+02 -0.387280006409E+02 -0.387280006409E+02 -0.387280006409E+02
 -0.387280006409E+02 -0.387280006409E+02 -0.387280006409E+02 -0.387280006409E+02 -0.384099998474E+02
 -0.384099998474E+02 -0.384099998474E+02 -0.384099998474E+02 -0.384099998474E+02 -0.384099998474E+02
 -0.384099998474E+02 -0.384099998474E+02 -0.384099998474E+02 -0.384099998474E+02 -0.384099998474E+02
 -0.384099998474E+02 -0.384099998474E+02 -0.384099998474E+02 -0.384099998474E+02 -0.384099998474E+02
 -0.384099998474E+02 -0.384099998474E+02 -0.384099998474E+02 -0.384099998474E+02 -0.384099998474E+02
 -0.384099998474E+02 -0.384099998474E+02 -0.384099998474E+02 -0.384099998474E+02 -0.384099998474E+02
 -0.384099998474E+02 -0.384099998474E+02 -0.384099998474E+02 -0.384099998474E+02 -0.384099998474E+02
 -0.384099998474E+02 -0.384099998474E+02 -0.384099998474E+02 -0.384099998474E+02 -0.384099998474E+02
 -0.384099998474E+02 -0.384099998474E+02 -0.384099998474E+02 -0.384099998474E+02 -0.384099998474E+02
 -0.384099998474E+02 -0.384099998474E+02 -0.384099998474E+02 -0.384099998474E+02 -0.384099998474E+02
 -0.384099998474E+02 -0.384099998474E+02 -0.384099998474E+02 -0.384099998474E+02 -0.380919990540E+02
 -0.380919990540E+02 -0.380919990540E+02 -0.380919990540E+02 -0.380919990540E+02 -0.380919990540E+02
 -0.380919990540E+02 -0.380919990540E+02 -0.380919990540E+02 -0.380919990540E+02 -0.380919990540E+02
 -0.380919990540E+02 -0.380919990540E+02 -0.380919990540E+02 -0.380919990540E+02 -0.380919990540E+02
 -0.380919990540E+02 -0.380919990540E+02 -0.380919990540E+02 -0.380919990540E+02 -0.380919990540E+02
 -0.380919990540E+02 -0.380919990540E+02 -0.380919990540E+02 -0.380919990540E+02 -0.380919990540E+02
 -0.380919990540E+02 -0.380919990540E+02 -0.380919990540E+02 -0.380919990540E+02 -0.380919990540E+02
 -0.380919990540E+02 -0.380919990540E+02 -0.380919990540E+02 -0.380919990540E+02 -0.380919990540E+02
 -0.380919990540E+02 -0.380919990540E+02 -0.380919990540E+02 -0.380919990540E+02 -0.380919990540E+02
 -0.380919990540E+02 -0.380919990540E+02 -0.380919990540E+02 -0.380919990540E+02 -0.380919990540E+02
 -0.380919990540E+02 -0.380919990540E+02 -0.380919990540E+02 -0.380919990540E+02 -0.377739982605E+02
 -0.377739982605E+02 -0.377739982605E+02 -0.377739982605E+02 -0.377739982605E+02 -0.377739982605E+02
 -0.377739982605E+02 -0.377739982605E+02 -0.377739982605E+02 -0.377739982605E+02 -0.377739982605E+02
 -0.377739982605E+02 -0.377739982605E+02 -0.377739982605E+02 -0.377739982605E+02 -0.377739982605E+02
 -0.377739982605E+02 -0.377739982605E+02 -0.377739982605E+02 -0.377739982605E+02 -0.377739982605E+02
 -0.377739982605E+02 -0.377739982605E+02 -0.377739982605E+02 -0.377739982605E+02 -0.377739982605E+02
 -0.377739982605E+02 -0.377739982605E+02 -0.377739982605E+02 -0.377739982605E+02 -0.377739982605E+02
 -0.377739982605E+02 -0.377739982605E+02 -0.377739982605E+02 -0.377739982605E+02 -0.377739982605E+02
 -0.377739982605E+02 -0.377739982605E+02 -0.377739982605E+02 -0.377739982605E+02 -0.377739982605E+02
 -0.377739982605E+02 -0.377739982605E+02 -0.377739982605E+02 -0.377739982605E+02 -0.377739982605E+02
 -0.377739982605E+02 -0.377739982605E+02 -0.377739982605E+02 -0.377739982605E+02 -0.374560012817E+02
 -0.374560012817E+02 -0.374560012817E+02 -0.374560012817E+02 -0.374560012817E+02 -0.374560012817E+02
 -0.374560012817E+02 -0.374560012817E+02 -0.374560012817E+02 -0.374560012817E+02 -0.374560012817E+02
 -0.374560012817E+02 -0.374560012817E+02 -0.374560012817E+02 -0.374560012817E+02 -0.374560012817E+02
 -0.374560012817E+02 -0.374560012817E+02 -0.374560012817E+02 -0.374560012817E+02 -0.374560012817E+02
 -0.374560012817E+02 -0.374560012817E+02 -0.374560012817E+02 -0.374560012817E+02 -0.374560012817E+02
 -0.374560012817E+02 -0.374560012817E+02 -0.374560012817E+02 -0.374560012817E+02 -0.374560012817E+02
 -0.374560012817E+02 -0.374560012817E+02 -0.374560012817E+02 -0.374560012817E+02 -0.374560012817E+02
 -0.374560012817E+02 -0.374560012817E+02 -0.374560012817E+02 -0.374560012817E+02 -0.374560012817E+02
 -0.374560012817E+02 -0.374560012817E+02 -0.374560012817E+02 -0.374560012817E+02 -0.374560012817E+02
 -0.374560012817E+02 -0.374560012817E+02 -0.374560012817E+02 -0.374560012817E+02 -0.371380004883E+02
 -0.371380004883E+02 -0.371380004883E+02 -0.371380004883E+02 -0.371380004883E+02 -0.371380004883E+02
 -0.371380004883E+02 -0.371380004883E+02 -0.371380004883E+02 -0.371380004883E+02 -0.371380004883E+02
 -0.371380004883E+02 -0.371380004883E+02 -0.371380004883E+02 -0.371380004883E+02 -0.371380004883E+02
 -0.371380004883E+02 -0.371380004883E+02 -0.371380004883E+02 -0.371380004883E+02 -0.371380004883E+02
 -0.371380004883E+02 -0.371380004883E+02 -0.371380004883E+02 -0.371380004883E+02 -0.371380004883E+02
 -0.371380004883E+02 -0.371380004883E+02 -0.371380004883E+02 -0.371380004883E+02 -0.371380004883E+02
 -0.371380004883E+02 -0.371380004883E+02 -0.371380004883E+02 -0.371380004883E+02 -0.371380004883E+02
 -0.371380004883E+02 -0.371380004883E+02 -0.371380004883E+02 -0.371380004883E+02 -0.371380004883E+02
 -0.371380004883E+02 -0.371380004883E+02 -0.371380004883E+02 -0.371380004883E+02 -0.371380004883E+02
 -0.371380004883E+02 -0.371380004883E+02 -0.371380004883E+02 -0.371380004883E+02 -0.368199996948E+02
 -0.368199996948E+02 -0.368199996948E+02 -0.368199996948E+02 -0.368199996948E+02 -0.368199996948E+02
 -0.368199996948E+02 -0.368199996948E+02 -0.368199996948E+02 -0.368199996948E+02 -0.368199996948E+02
 -0.368199996948E+02 -0.368199996948E+02 -0.368199996948E+02 -0.368199996948E+02 -0.368199996948E+02
 -0.368199996948E+02 -0.368199996948E+02 -0.368199996948E+02 -0.368199996948E+02 -0.368199996948E+02
 -0.368199996948E+02 -0.368199996948E+02 -0.368199996948E+02 -0.368199996948E+02 -0.368199996948E+02
 -0.368199996948E+02 -0.368199996948E+02 -0.368199996948E+02 -0.368199996948E+02 -0.368199996948E+02
 -0.368199996948E+02 -0.368199996948E+02 -0.368199996948E+02 -0.368199996948E+02 -0.368199996948E+02
 -0.368199996948E+02 -0.368199996948E+02 -0.368199996948E+02 -0.368199996948E+02 -0.368199996948E+02
 -0.368199996948E+02 -0.368199996948E+02 -0.368199996948E+02 -0.368199996948E+02 -0.368199996948E+02
 -0.368199996948E+02 -0.368199996948E+02 -0.368199996948E+02 -0.368199996948E+02 -0.365019989014E+02
 -0.365019989014E+02 -0.365019989014E+02 -0.365019989014E+02 -0.365019989014E+02 -0.365019989014E+02
 -0.365019989014E+02 -0.365019989014E+02 -0.365019989014E+02 -0.365019989014E+02 -0.365019989014E+02
 -0.365019989014E+02 -0.365019989014E+02 -0.365019989014E+02 -0.365019989014E+02 -0.365019989014E+02
 -0.365019989014E+02 -0.365019989014E+02 -0.365019989014E+02 -0.365019989014E+02 -0.365019989014E+02
 -0.365019989014E+02 -0.365019989014E+02 -0.365019989014E+02 -0.365019989014E+02 -0.365019989014E+02
 -0.365019989014E+02 -0.365019989014E+02 -0.365019989014E+02 -0.365019989014E+02 -0.365019989014E+02
 -0.365019989014E+02 -0.365019989014E+02 -0.365019989014E+02 -0.365019989014E+02 -0.365019989014E+02
 -0.365019989014E+02 -0.365019989014E+02 -0.365019989014E+02 -0.365019989014E+02 -0.365019989014E+02
 -0.365019989014E+02 -0.365019989014E+02 -0.365019989014E+02 -0.365019989014E+02 -0.365019989014E+02
 -0.365019989014E+02 -0.365019989014E+02 -0.365019989014E+02 -0.365019989014E+02 -0.361839981079E+02
 -0.361839981079E+02 -0.361839981079E+02 -0.361839981079E+02 -0.361839981079E+02 -0.361839981079E+02
 -0.361839981079E+02 -0.361839981079E+02 -0.361839981079E+02 -0.361839981079E+02 -0.361839981079E+02
 -0.361839981079E+02 -0.361839981079E+02 -0.361839981079E+02 -0.361839981079E+02 -0.361839981079E+02
 -0.361839981079E+02 -0.361839981079E+02 -0.361839981079E+02 -0.361839981079E+02 -0.361839981079E+02
 -0.361839981079E+02 -0.361839981079E+02 -0.361839981079E+02 -0.361839981079E+02 -0.361839981079E+02
 -0.361839981079E+02 -0.361839981079E+02 -0.361839981079E+02 -0.361839981079E+02 -0.361839981079E+02
 -0.361839981079E+02 -0.361839981079E+02 -0.361839981079E+02 -0.361839981079E+02 -0.361839981079E+02
 -0.361839981079E+02 -0.361839981079E+02 -0.361839981079E+02 -0.361839981079E+02 -0.361839981079E+02
 -0.361839981079E+02 -0.361839981079E+02 -0.361839981079E+02 -0.361839981079E+02 -0.361839981079E+02
 -0.361839981079E+02 -0.361839981079E+02 -0.361839981079E+02 -0.361839981079E+02 -0.358660011292E+02
 -0.358660011292E+02 -0.358660011292E+02 -0.358660011292E+02 -0.358660011292E+02 -0.358660011292E+02
 -0.358660011292E+02 -0.358660011292E+02 -0.358660011292E+02 -0.358660011292E+02 -0.358660011292E+02
 -0.358660011292E+02 -0.358660011292E+02 -0.358660011292E+02 -0.358660011292E+02 -0.358660011292E+02
 -0.358660011292E+02 -0.358660011292E+02 -0.358660011292E+02 -0.358660011292E+02 -0.358660011292E+02
 -0.358660011292E+02 -0.358660011292E+02 -0.358660011292E+02 -0.358660011292E+02 -0.358660011292E+02
 -0.358660011292E+02 -0.358660011292E+02 -0.358660011292E+02 -0.358660011292E+02 -0.358660011292E+02
 -0.358660011292E+02 -0.358660011292E+02 -0.358660011292E+02 -0.358660011292E+02 -0.358660011292E+02
 -0.358660011292E+02 -0.358660011292E+02 -0.358660011292E+02 -0.358660011292E+02 -0.358660011292E+02
 -0.358660011292E+02 -0.358660011292E+02 -0.358660011292E+02 -0.358660011292E+02 -0.358660011292E+02
 -0.358660011292E+02 -0.358660011292E+02 -0.358660011292E+02 -0.358660011292E+02 -0.355480003357E+02
 -0.355480003357E+02 -0.355480003357E+02 -0.355480003357E+02 -0.355480003357E+02 -0.355480003357E+02
 -0.355480003357E+02 -0.355480003357E+02 -0.355480003357E+02 -0.355480003357E+02 -0.355480003357E+02
 -0.355480003357E+02 -0.355480003357E+02 -0.355480003357E+02 -0.355480003357E+02 -0.355480003357E+02
 -0.355480003357E+02 -0.355480003357E+02 -0.355480003357E+02 -0.355480003357E+02 -0.355480003357E+02
 -0.355480003357E+02 -0.355480003357E+02 -0.355480003357E+02 -0.355480003357E+02 -0.355480003357E+02
 -0.355480003357E+02 -0.355480003357E+02 -0.355480003357E+02 -0.355480003357E+02 -0.355480003357E+02
 -0.355480003357E+02 -0.355480003357E+02 -0.355480003357E+02 -0.355480003357E+02 -0.355480003357E+02
 -0.355480003357E+02 -0.355480003357E+02 -0.355480003357E+02 -0.355480003357E+02 -0.355480003357E+02
 -0.355480003357E+02 -0.355480003357E+02 -0.355480003357E+02 -0.355480003357E+02 -0.355480003357E+02
 -0.355480003357E+02 -0.355480003357E+02 -0.355480003357E+02 -0.355480003357E+02 -0.352299995422E+02
 -0.352299995422E+02 -0.352299995422E+02 -0.352299995422E+02 -0.352299995422E+02 -0.352299995422E+02
 -0.352299995422E+02 -0.352299995422E+02 -0.352299995422E+02 -0.352299995422E+02 -0.352299995422E+02
 -0.352299995422E+02 -0.352299995422E+02 -0.352299995422E+02 -0.352299995422E+02 -0.352299995422E+02
 -0.352299995422E+02 -0.352299995422E+02 -0.352299995422E+02 -0.352299995422E+02 -0.352299995422E+02
 -0.352299995422E+02 -0.352299995422E+02 -0.352299995422E+02 -0.352299995422E+02 -0.352299995422E+02
 -0.352299995422E+02 -0.352299995422E+02 -0.352299995422E+02 -0.352299995422E+02 -0.352299995422E+02
 -0.352299995422E+02 -0.352299995422E+02 -0.352299995422E+02 -0.352299995422E+02 -0.352299995422E+02
 -0.352299995422E+02 -0.352299995422E+02 -0.352299995422E+02 -0.352299995422E+02 -0.352299995422E+02
 -0.352299995422E+02 -0.352299995422E+02 -0.352299995422E+02 -0.352299995422E+02 -0.352299995422E+02
 -0.352299995422E+02 -0.352299995422E+02 -0.352299995422E+02 -0.352299995422E+02 -0.349119987488E+02
 -0.349119987488E+02 -0.349119987488E+02 -0.349119987488E+02 -0.349119987488E+02 -0.349119987488E+02
 -0.349119987488E+02 -0.349119987488E+02 -0.349119987488E+02 -0.349119987488E+02 -0.349119987488E+02
 -0.349119987488E+02 -0.349119987488E+02 -0.349119987488E+02 -0.349119987488E+02 -0.349119987488E+02
 -0.349119987488E+02 -0.349119987488E+02 -0.349119987488E+02 -0.349119987488E+02 -0.349119987488E+02
 -0.349119987488E+02 -0.349119987488E+02 -0.349119987488E+02 -0.349119987488E+02 -0.349119987488E+02
 -0.349119987488E+02 -0.349119987488E+02 -0.349119987488E+02 -0.349119987488E+02 -0.349119987488E+02
 -0.349119987488E+02 -0.349119987488E+02 -0.349119987488E+02 -0.349119987488E+02 -0.349119987488E+02
 -0.349119987488E+02 -0.349119987488E+02 -0.349119987488E+02 -0.349119987488E+02 -0.349119987488E+02
 -0.349119987488E+02 -0.349119987488E+02 -0.349119987488E+02 -0.349119987488E+02 -0.349119987488E+02
 -0.349119987488E+02 -0.349119987488E+02 -0.349119987488E+02 -0.349119987488E+02 -0.345939979553E+02
 -0.345939979553E+02 -0.345939979553E+02 -0.345939979553E+02 -0.345939979553E+02 -0.345939979553E+02
 -0.345939979553E+02 -0.345939979553E+02 -0.345939979553E+02 -0.345939979553E+02 -0.345939979553E+02
 -0.345939979553E+02 -0.345939979553E+02 -0.345939979553E+02 -0.345939979553E+02 -0.345939979553E+02
 -0.345939979553E+02 -0.345939979553E+02 -0.345939979553E+02 -0.345939979553E+02 -0.345939979553E+02
 -0.345939979553E+02 -0.345939979553E+02 -0.345939979553E+02 -0.345939979553E+02 -0.345939979553E+02
 -0.345939979553E+02 -0.345939979553E+02 -0.345939979553E+02 -0.345939979553E+02 -0.345939979553E+02
 -0.345939979553E+02 -0.345939979553E+02 -0.345939979553E+02 -0.345939979553E+02 -0.345939979553E+02
 -0.345939979553E+02 -0.345939979553E+02 -0.345939979553E+02 -0.345939979553E+02 -0.345939979553E+02
 -0.345939979553E+02 -0.345939979553E+02 -0.345939979553E+02 -0.345939979553E+02 -0.345939979553E+02
 -0.345939979553E+02 -0.345939979553E+02 -0.345939979553E+02 -0.345939979553E+02 -0.342760009766E+02
 -0.342760009766E+02 -0.342760009766E+02 -0.342760009766E+02 -0.342760009766E+02 -0.342760009766E+02
 -0.342760009766E+02 -0.342760009766E+02 -0.342760009766E+02 -0.342760009766E+02 -0.342760009766E+02
 -0.342760009766E+02 -0.342760009766E+02 -0.342760009766E+02 -0.342760009766E+02 -0.342760009766E+02
 -0.342760009766E+02 -0.342760009766E+02 -0.342760009766E+02 -0.342760009766E+02 -0.342760009766E+02
 -0.342760009766E+02 -0.342760009766E+02 -0.342760009766E+02 -0.342760009766E+02 -0.342760009766E+02
 -0.342760009766E+02 -0.342760009766E+02 -0.342760009766E+02 -0.342760009766E+02 -0.342760009766E+02
 -0.342760009766E+02 -0.342760009766E+02 -0.342760009766E+02 -0.342760009766E+02 -0.342760009766E+02
 -0.342760009766E+02 -0.342760009766E+02 -0.342760009766E+02 -0.342760009766E+02 -0.342760009766E+02
 -0.342760009766E+02 -0.342760009766E+02 -0.342760009766E+02 -0.342760009766E+02 -0.342760009766E+02
 -0.342760009766E+02 -0.342760009766E+02 -0.342760009766E+02 -0.342760009766E+02 -0.339580001831E+02
 -0.339580001831E+02 -0.339580001831E+02 -0.339580001831E+02 -0.339580001831E+02 -0.339580001831E+02
 -0.339580001831E+02 -0.339580001831E+02 -0.339580001831E+02 -0.339580001831E+02 -0.339580001831E+02
 -0.339580001831E+02 -0.339580001831E+02 -0.339580001831E+02 -0.339580001831E+02 -0.339580001831E+02
 -0.339580001831E+02 -0.339580001831E+02 -0.339580001831E+02 -0.339580001831E+02 -0.339580001831E+02
 -0.339580001831E+02 -0.339580001831E+02 -0.339580001831E+02 -0.339580001831E+02 -0.339580001831E+02
 -0.339580001831E+02 -0.339580001831E+02 -0.339580001831E+02 -0.339580001831E+02 -0.339580001831E+02
 -0.339580001831E+02 -0.339580001831E+02 -0.339580001831E+02 -0.339580001831E+02 -0.339580001831E+02
 -0.339580001831E+02 -0.339580001831E+02 -0.339580001831E+02 -0.339580001831E+02 -0.339580001831E+02
 -0.339580001831E+02 -0.339580001831E+02 -0.339580001831E+02 -0.339580001831E+02 -0.339580001831E+02
 -0.339580001831E+02 -0.339580001831E+02 -0.339580001831E+02 -0.339580001831E+02 -0.336399993896E+02
 -0.336399993896E+02 -0.336399993896E+02 -0.336399993896E+02 -0.336399993896E+02 -0.336399993896E+02
 -0.336399993896E+02 -0.336399993896E+02 -0.336399993896E+02 -0.336399993896E+02 -0.336399993896E+02
 -0.336399993896E+02 -0.336399993896E+02 -0.336399993896E+02 -0.336399993896E+02 -0.336399993896E+02
 -0.336399993896E+02 -0.336399993896E+02 -0.336399993896E+02 -0.336399993896E+02 -0.336399993896E+02
 -0.336399993896E+02 -0.336399993896E+02 -0.336399993896E+02 -0.336399993896E+02 -0.336399993896E+02
 -0.336399993896E+02 -0.336399993896E+02 -0.336399993896E+02 -0.336399993896E+02 -0.336399993896E+02
 -0.336399993896E+02 -0.336399993896E+02 -0.336399993896E+02 -0.336399993896E+02 -0.336399993896E+02
 -0.336399993896E+02 -0.336399993896E+02 -0.336399993896E+02 -0.336399993896E+02 -0.336399993896E+02
 -0.336399993896E+02 -0.336399993896E+02 -0.336399993896E+02 -0.336399993896E+02 -0.336399993896E+02
 -0.336399993896E+02 -0.336399993896E+02 -0.336399993896E+02 -0.336399993896E+02 -0.333219985962E+02
 -0.333219985962E+02 -0.333219985962E+02 -0.333219985962E+02 -0.333219985962E+02 -0.333219985962E+02
 -0.333219985962E+02 -0.333219985962E+02 -0.333219985962E+02 -0.333219985962E+02 -0.333219985962E+02
 -0.333219985962E+02 -0.333219985962E+02 -0.333219985962E+02 -0.333219985962E+02 -0.333219985962E+02
 -0.333219985962E+02 -0.333219985962E+02 -0.333219985962E+02 -0.333219985962E+02 -0.333219985962E+02
 -0.333219985962E+02 -0.333219985962E+02 -0.333219985962E+02 -0.333219985962E+02 -0.333219985962E+02
 -0.333219985962E+02 -0.333219985962E+02 -0.333219985962E+02 -0.333219985962E+02 -0.333219985962E+02
 -0.333219985962E+02 -0.333219985962E+02 -0.333219985962E+02 -0.333219985962E+02 -0.333219985962E+02
 -0.333219985962E+02 -0.333219985962E+02 -0.333219985962E+02 -0.333219985962E+02 -0.333219985962E+02
 -0.333219985962E+02 -0.333219985962E+02 -0.333219985962E+02 -0.333219985962E+02 -0.333219985962E+02
 -0.333219985962E+02 -0.333219985962E+02 -0.333219985962E+02 -0.333219985962E+02 -0.330039978027E+02
 -0.330039978027E+02 -0.330039978027E+02 -0.330039978027E+02 -0.330039978027E+02 -0.330039978027E+02
 -0.330039978027E+02 -0.330039978027E+02 -0.330039978027E+02 -0.330039978027E+02 -0.330039978027E+02
 -0.330039978027E+02 -0.330039978027E+02 -0.330039978027E+02 -0.330039978027E+02 -0.330039978027E+02
 -0.330039978027E+02 -0.330039978027E+02 -0.330039978027E+02 -0.330039978027E+02 -0.330039978027E+02
 -0.330039978027E+02 -0.330039978027E+02 -0.330039978027E+02 -0.330039978027E+02 -0.330039978027E+02
 -0.330039978027E+02 -0.330039978027E+02 -0.330039978027E+02 -0.330039978027E+02 -0.330039978027E+02
 -0.330039978027E+02 -0.330039978027E+02 -0.330039978027E+02 -0.330039978027E+02 -0.330039978027E+02
 -0.330039978027E+02 -0.330039978027E+02 -0.330039978027E+02 -0.330039978027E+02 -0.330039978027E+02
 -0.330039978027E+02 -0.330039978027E+02 -0.330039978027E+02 -0.330039978027E+02 -0.330039978027E+02
 -0.330039978027E+02 -0.330039978027E+02 -0.330039978027E+02 -0.330039978027E+02 -0.326860008240E+02
 -0.326860008240E+02 -0.326860008240E+02 -0.326860008240E+02 -0.326860008240E+02 -0.326860008240E+02
 -0.326860008240E+02 -0.326860008240E+02 -0.326860008240E+02 -0.326860008240E+02 -0.326860008240E+02
 -0.326860008240E+02 -0.326860008240E+02 -0.326860008240E+02 -0.326860008240E+02 -0.326860008240E+02
 -0.326860008240E+02 -0.326860008240E+02 -0.326860008240E+02 -0.326860008240E+02 -0.326860008240E+02
 -0.326860008240E+02 -0.326860008240E+02 -0.326860008240E+02 -0.326860008240E+02 -0.326860008240E+02
 -0.326860008240E+02 -0.326860008240E+02 -0.326860008240E+02 -0.326860008240E+02 -0.326860008240E+02
 -0.326860008240E+02 -0.326860008240E+02 -0.326860008240E+02 -0.326860008240E+02 -0.326860008240E+02
 -0.326860008240E+02 -0.326860008240E+02 -0.326860008240E+02 -0.326860008240E+02 -0.326860008240E+02
 -0.326860008240E+02 -0.326860008240E+02 -0.326860008240E+02 -0.326860008240E+02 -0.326860008240E+02